integrator              = md
dt                      = 0.002
nsteps                  = 75000000
nstlog                  = 25000
nstenergy               = 25000
nstxout-compressed      = 50000
compressed-x-grps       = System
cutoff-scheme           = Verlet
coulombtype             = PME
rcoulomb                = 1.2
rvdw                    = 1.2
vdw-modifier            = force-switch
rvdw-switch             = 1.0
constraints             = h-bonds
constraint-algorithm    = LINCS
tcoupl                  = v-rescale
tc-grps                 = MEMB SOLV
tau-t                   = 1.0 1.0
ref-t                   = 303.15 303.15
pcoupl                  = C-rescale
pcoupltype              = semiisotropic
tau-p                   = 5.0
ref-p                   = 1.0 1.0
compressibility         = 4.5e-5 4.5e-5
gen-vel                 = yes
gen-temp                = 303.15
gen-seed                = 20268650
