; C5aR1 (WT, apo) in POPC -- CHARMM36
; parameters from the SAME files that produced the banked depth references

#include "charmm36-jul2021.ff/forcefield.itp"
#include "toppar/PROA.itp"
#include "toppar/POPC.itp"
#include "toppar/POT.itp"
#include "toppar/CLA.itp"
#include "toppar/TIP3.itp"
#include "toppar/BENZ.itp"

[ system ]
C5aR1 WT apo in POPC

[ molecules ]
PROA      1
POPC      482
POT       97
CLA       111
TIP3 35281
BENZ      91
