BENZ benzene probe, 12-atom protonated idealized planar (C-C 1.375A, C-H 1.08A); geometry only, relaxed by EM
   12
    1BENZ    CG    1   0.437   0.300   0.300
    1BENZ    HG    2   0.545   0.300   0.300
    1BENZ   CD1    3   0.369   0.419   0.300
    1BENZ   HD1    4   0.423   0.513   0.300
    1BENZ   CD2    5   0.369   0.181   0.300
    1BENZ   HD2    6   0.423   0.087   0.300
    1BENZ   CE1    7   0.231   0.419   0.300
    1BENZ   HE1    8   0.177   0.513   0.300
    1BENZ   CE2    9   0.231   0.181   0.300
    1BENZ   HE2   10   0.177   0.087   0.300
    1BENZ    CZ   11   0.163   0.300   0.300
    1BENZ    HZ   12   0.055   0.300   0.300
   0.60000   0.60000   0.60000
