;;
;; Generated by CHARMM-GUI FF-Converter
;;
;; Correspondance:
;; jul316@lehigh.edu or wonpil@lehigh.edu
;;
;; The main GROMACS topology file
;;

; Include forcefield parameters
#include "toppar/forcefield.itp"
#include "toppar/BENZ_atomtypes.itp"
#include "toppar/PROA.itp"
#include "toppar/POPC.itp"
#include "toppar/POT.itp"
#include "toppar/CLA.itp"
#include "toppar/TIP3.itp"
#include "toppar/BENZ.itp"

[ system ]
; Name
Title

[ molecules ]
; Compound	#mols
PROA  	           1
POPC  	         455
POT   	          97
CLA   	         114
TIP3   35223
BENZ   91
