;;
;; Generated by CHARMM-GUI FF-Converter
;;
;; Correspondance:
;; jul316@lehigh.edu or wonpil@lehigh.edu
;;
;; The main GROMACS topology file
;;

; Include forcefield parameters
#include "toppar/forcefield.itp"
#include "toppar/PROA.itp"
#include "toppar/PROB.itp"
#include "toppar/POT.itp"
#include "toppar/POPC.itp"
#include "toppar/CLA.itp"
#include "toppar/TIP3.itp"
#include "toppar/BENZ.itp"

[ system ]
; Name
Title

[ molecules ]
; Compound	#mols
PROA  	           1
PROB  	           1
POT   	         147
POPC  	         482
CLA   	         144
TIP3      52157
BENZ      91
