; ACEM.itp -- fragment probe, moleculetype only.
; Generated from ACEM.top (gmx pdb2gmx, charmm36-jul2021 port).
; Atom types used: CG2O1 CG331 HGA3 HGP1 NG2S2 OG2D1
; Missing from the bilayer forcefield and supplied separately: CG2O1 CG331 HGA3 HGP1 NG2S2 OG2D1
; Carries NO [atomtypes] and NO [position_restraints] -- the probe stays free.

[ moleculetype ]
; Name            nrexcl
ACEM            3

[ atoms ]
;   nr       type  resnr residue  atom   cgnr     charge       mass  typeB    chargeB      massB
; residue   1 ACEM rtp ACEM q  0.0
     1      CG331      1   ACEM     CC      1      -0.27     12.011
     2       HGA3      1   ACEM    HC1      1       0.09      1.008
     3       HGA3      1   ACEM    HC2      1       0.09      1.008
     4       HGA3      1   ACEM    HC3      1       0.09      1.008
     5      CG2O1      1   ACEM      C      1       0.55     12.011
     6      NG2S2      1   ACEM      N      1      -0.62     14.007
     7       HGP1      1   ACEM     HC      1       0.32      1.008
     8       HGP1      1   ACEM     HT      1        0.3      1.008
     9      OG2D1      1   ACEM      O      1      -0.55    15.9994   ; qtot 0

[ bonds ]
;  ai    aj funct            c0            c1            c2            c3
    1     2     1 
    1     3     1 
    1     4     1 
    1     5     1 
    5     6     1 
    5     9     1 
    6     7     1 
    6     8     1 

[ pairs ]
;  ai    aj funct            c0            c1            c2            c3
    1     7     1 
    1     8     1 
    2     6     1 
    2     9     1 
    3     6     1 
    3     9     1 
    4     6     1 
    4     9     1 
    7     9     1 
    8     9     1 

[ angles ]
;  ai    aj    ak funct            c0            c1            c2            c3
    2     1     3     5 
    2     1     4     5 
    2     1     5     5 
    3     1     4     5 
    3     1     5     5 
    4     1     5     5 
    1     5     6     5 
    1     5     9     5 
    6     5     9     5 
    5     6     7     5 
    5     6     8     5 
    7     6     8     5 

[ dihedrals ]
;  ai    aj    ak    al funct            c0            c1            c2            c3            c4            c5
    2     1     5     6     9 
    2     1     5     9     9 
    3     1     5     6     9 
    3     1     5     9     9 
    4     1     5     6     9 
    4     1     5     9     9 
    1     5     6     7     9 
    1     5     6     8     9 
    9     5     6     7     9 
    9     5     6     8     9 

[ dihedrals ]
;  ai    aj    ak    al funct            c0            c1            c2            c3
    5     1     6     9     2 


; Include water topology
